version 2
run General-0-20180821-15:07:43-10948
attr configname General
attr datetime 20180821-15:07:43
attr experiment General
attr inifile omnetpp.ini
attr iterationvars ""
attr iterationvarsf ""
attr measurement ""
attr network MobileNetwork
attr processid 10948
attr repetition 0
attr replication #0
attr resultdir results
attr runnumber 0
attr seedset 0

vector 0 MobileNetwork.host[0] coordX:vector ETV
attr interpolationmode linear
attr source xCoord(mobilityPos(mobilityStateChanged))
attr title "coord X, vector"
vector 1 MobileNetwork.host[0] coordY:vector ETV
attr interpolationmode linear
attr source yCoord(mobilityPos(mobilityStateChanged))
attr title "coord Y, vector"
vector 2 MobileNetwork.host[1] coordX:vector ETV
attr interpolationmode linear
attr source xCoord(mobilityPos(mobilityStateChanged))
attr title "coord X, vector"
vector 3 MobileNetwork.host[1] coordY:vector ETV
attr interpolationmode linear
attr source yCoord(mobilityPos(mobilityStateChanged))
attr title "coord Y, vector"
vector 4 MobileNetwork.host[2] coordX:vector ETV
attr interpolationmode linear
attr source xCoord(mobilityPos(mobilityStateChanged))
attr title "coord X, vector"
vector 5 MobileNetwork.host[2] coordY:vector ETV
attr interpolationmode linear
attr source yCoord(mobilityPos(mobilityStateChanged))
attr title "coord Y, vector"
vector 6 MobileNetwork.host[3] coordX:vector ETV
attr interpolationmode linear
attr source xCoord(mobilityPos(mobilityStateChanged))
attr title "coord X, vector"
vector 7 MobileNetwork.host[3] coordY:vector ETV
attr interpolationmode linear
attr source yCoord(mobilityPos(mobilityStateChanged))
attr title "coord Y, vector"
vector 8 MobileNetwork.host[4] coordX:vector ETV
attr interpolationmode linear
attr source xCoord(mobilityPos(mobilityStateChanged))
attr title "coord X, vector"
vector 9 MobileNetwork.host[4] coordY:vector ETV
attr interpolationmode linear
attr source yCoord(mobilityPos(mobilityStateChanged))
attr title "coord Y, vector"
vector 10 MobileNetwork.host[5] coordX:vector ETV
attr interpolationmode linear
attr source xCoord(mobilityPos(mobilityStateChanged))
attr title "coord X, vector"
vector 11 MobileNetwork.host[5] coordY:vector ETV
attr interpolationmode linear
attr source yCoord(mobilityPos(mobilityStateChanged))
attr title "coord Y, vector"
vector 12 MobileNetwork.host[6] coordX:vector ETV
attr interpolationmode linear
attr source xCoord(mobilityPos(mobilityStateChanged))
attr title "coord X, vector"
vector 13 MobileNetwork.host[6] coordY:vector ETV
attr interpolationmode linear
attr source yCoord(mobilityPos(mobilityStateChanged))
attr title "coord Y, vector"
vector 14 MobileNetwork.host[7] coordX:vector ETV
attr interpolationmode linear
attr source xCoord(mobilityPos(mobilityStateChanged))
attr title "coord X, vector"
vector 15 MobileNetwork.host[7] coordY:vector ETV
attr interpolationmode linear
attr source yCoord(mobilityPos(mobilityStateChanged))
attr title "coord Y, vector"
vector 16 MobileNetwork.host[8] coordX:vector ETV
attr interpolationmode linear
attr source xCoord(mobilityPos(mobilityStateChanged))
attr title "coord X, vector"
vector 17 MobileNetwork.host[8] coordY:vector ETV
attr interpolationmode linear
attr source yCoord(mobilityPos(mobilityStateChanged))
attr title "coord Y, vector"
vector 18 MobileNetwork.host[9] coordX:vector ETV
attr interpolationmode linear
attr source xCoord(mobilityPos(mobilityStateChanged))
attr title "coord X, vector"
vector 19 MobileNetwork.host[9] coordY:vector ETV
attr interpolationmode linear
attr source yCoord(mobilityPos(mobilityStateChanged))
attr title "coord Y, vector"
vector 20 MobileNetwork.host[10] coordX:vector ETV
attr interpolationmode linear
attr source xCoord(mobilityPos(mobilityStateChanged))
attr title "coord X, vector"
vector 21 MobileNetwork.host[10] coordY:vector ETV
attr interpolationmode linear
attr source yCoord(mobilityPos(mobilityStateChanged))
attr title "coord Y, vector"
vector 22 MobileNetwork.host[11] coordX:vector ETV
attr interpolationmode linear
attr source xCoord(mobilityPos(mobilityStateChanged))
attr title "coord X, vector"
vector 23 MobileNetwork.host[11] coordY:vector ETV
attr interpolationmode linear
attr source yCoord(mobilityPos(mobilityStateChanged))
attr title "coord Y, vector"
vector 24 MobileNetwork.host[12] coordX:vector ETV
attr interpolationmode linear
attr source xCoord(mobilityPos(mobilityStateChanged))
attr title "coord X, vector"
vector 25 MobileNetwork.host[12] coordY:vector ETV
attr interpolationmode linear
attr source yCoord(mobilityPos(mobilityStateChanged))
attr title "coord Y, vector"
vector 26 MobileNetwork.host[13] coordX:vector ETV
attr interpolationmode linear
attr source xCoord(mobilityPos(mobilityStateChanged))
attr title "coord X, vector"
vector 27 MobileNetwork.host[13] coordY:vector ETV
attr interpolationmode linear
attr source yCoord(mobilityPos(mobilityStateChanged))
attr title "coord Y, vector"
vector 28 MobileNetwork.host[14] coordX:vector ETV
attr interpolationmode linear
attr source xCoord(mobilityPos(mobilityStateChanged))
attr title "coord X, vector"
vector 29 MobileNetwork.host[14] coordY:vector ETV
attr interpolationmode linear
attr source yCoord(mobilityPos(mobilityStateChanged))
attr title "coord Y, vector"
vector 30 MobileNetwork.host[15] coordX:vector ETV
attr interpolationmode linear
attr source xCoord(mobilityPos(mobilityStateChanged))
attr title "coord X, vector"
vector 31 MobileNetwork.host[15] coordY:vector ETV
attr interpolationmode linear
attr source yCoord(mobilityPos(mobilityStateChanged))
attr title "coord Y, vector"
0	0	0	300
1	0	0	300
2	0	0	300
3	0	0	300
4	0	0	300
5	0	0	300
6	0	0	300
7	0	0	300
8	0	0	300
9	0	0	300
10	0	0	300
11	0	0	300
12	0	0	300
13	0	0	300
14	0	0	300
15	0	0	300
16	0	0	300
17	0	0	300
18	0	0	300
19	0	0	300
20	0	0	300
21	0	0	300
22	0	0	300
23	0	0	300
24	0	0	300
25	0	0	300
26	0	0	300
27	0	0	300
28	0	0	300
29	0	0	300
30	0	0	300
31	0	0	300

