version 2
run tictoc15-0-20180822-18:26:29-4236
attr configname tictoc15
attr datetime 20180822-18:26:29
attr experiment tictoc15
attr inifile omnetpp.ini
attr iterationvars ""
attr iterationvarsf ""
attr measurement ""
attr network Tictoc15
attr processid 4236
attr repetition 0
attr replication #0
attr resultdir results
attr runnumber 0
attr seedset 0

vector 0 Tictoc15.tic[5] "" ETV
vector 1 Tictoc15.tic[0] "" ETV
vector 2 Tictoc15.tic[3] "" ETV
vector 3 Tictoc15.tic[4] "" ETV
vector 4 Tictoc15.tic[1] "" ETV
vector 5 Tictoc15.tic[2] "" ETV
0	18	1.7	0
0	76	7.5	0
0	78	7.7	0
0	108	10.7	0
0	236	23.5	0
0	336	33.5	0
0	350	34.9	0
0	366	36.5	0
0	428	42.7	0
0	436	43.5	0
0	446	44.5	0
0	504	50.3	0
0	558	55.7	0
0	686	68.5	0
0	716	71.5	0
0	788	78.7	0
0	884	88.3	0
0	888	88.7	0
0	924	92.3	0
0	1000	99.9	0
0	1478	147.7	0
0	1526	152.5	0
0	1580	157.9	0
0	1628	162.7	0
0	1670	166.9	0
0	1734	173.3	0
0	1850	184.9	0
0	1884	188.3	0
0	1924	192.3	0
0	1956	195.5	0
0	2024	202.3	0
0	2106	210.5	0
0	2138	213.7	0
0	2222	222.1	0
0	2242	224.1	0
0	2290	228.9	0
0	2346	234.5	0
0	2388	238.7	0
0	2426	242.5	0
0	2492	249.1	0
0	2534	253.3	0
0	2566	256.5	0
0	2598	259.7	0
0	2614	261.3	0
0	2662	266.1	0
0	2886	288.5	0
0	2938	293.7	0
0	3068	306.7	0
0	3144	314.3	0
0	3170	316.9	0
0	3192	319.1	0
0	3204	320.3	0
0	3304	330.3	0
0	3390	338.9	0
0	3394	339.3	0
0	3402	340.1	0
0	3422	342.1	0
0	3440	343.9	0
0	3464	346.3	0
0	3528	352.7	0
0	3550	354.9	0
0	3590	358.9	0
0	3604	360.3	0
0	3606	360.5	0
0	3756	375.5	0
0	3914	391.3	0
0	3928	392.7	0
0	3958	395.7	0
0	4072	407.1	0
0	4108	410.7	0
0	4130	412.9	0
0	4136	413.5	0
0	4212	421.1	0
0	4258	425.7	0
0	4372	437.1	0
0	4532	453.1	0
0	4586	458.5	0
0	4694	469.3	0
0	4704	470.3	0
0	4794	479.3	0
0	4856	485.5	0
0	4888	488.7	0
0	5034	503.3	0
0	5096	509.5	0
0	5142	514.1	0
0	5158	515.7	0
0	5278	527.7	0
0	5386	538.5	0
0	5480	547.9	0
0	5560	555.9	0
0	5578	557.7	0
0	5594	559.3	0
0	5674	567.3	0
0	5714	571.3	0
0	5738	573.7	0
0	5782	578.1	0
0	5802	580.1	0
0	5958	595.7	0
0	5972	597.1	0
0	5996	599.5	0
0	6048	604.7	0
0	6100	609.9	0
0	6128	612.7	0
0	6230	622.9	0
0	6268	626.7	0
0	6292	629.1	0
0	6360	635.9	0
0	6528	652.7	0
0	6628	662.7	0
0	6634	663.3	0
0	6706	670.5	0
0	6776	677.5	0
0	6784	678.3	0
0	6868	686.7	0
0	6902	690.1	0
0	6938	693.7	0
0	6970	696.9	0
0	7030	702.9	0
0	7082	708.1	0
0	7142	714.1	0
0	7166	716.5	0
0	7210	720.9	0
0	7322	732.1	0
0	7328	732.7	0
0	7374	737.3	0
0	7484	748.3	0
0	7498	749.7	0
0	7568	756.7	0
0	7598	759.7	0
0	7622	762.1	0
0	7700	769.9	0
0	7720	771.9	0
0	7752	775.1	0
0	7764	776.3	0
0	7812	781.1	0
0	7848	784.7	0
0	7958	795.7	0
0	7986	798.5	0
0	8040	803.9	0
0	8060	805.9	0
0	8318	831.7	0
0	8402	840.1	0
0	8504	850.3	0
0	8574	857.3	0
0	8628	862.7	0
0	8680	867.9	0
0	8716	871.5	0
0	8784	878.3	0
0	8902	890.1	0
0	8994	899.3	0
0	9044	904.3	0
0	9068	906.7	0
0	9080	907.9	0
0	9152	915.1	0
0	9164	916.3	0
0	9170	916.9	0
0	9182	918.1	0
0	9206	920.5	0
0	9312	931.1	0
0	9340	933.9	0
0	9352	935.1	0
0	9458	945.7	0
0	9528	952.7	0
0	9594	959.3	0
0	9732	973.1	0
0	9778	977.7	0
0	9818	981.7	0
0	9866	986.5	0
0	9934	993.3	0
0	10038	1003.7	0
0	10078	1007.7	0
0	10096	1009.5	0
0	10140	1013.9	0
0	10158	1015.7	0
0	10180	1017.9	0
0	10194	1019.3	0
0	10264	1026.3	0
0	10352	1035.1	0
0	10526	1052.5	0
0	10562	1056.1	0
0	10616	1061.5	0
0	10668	1066.7	0
0	10680	1067.9	0
0	10694	1069.3	0
0	10784	1078.3	0
0	10804	1080.3	0
0	10812	1081.1	0
0	10830	1082.9	0
0	10912	1091.1	0
0	10998	1099.7	0
0	11120	1111.9	0
0	11154	1115.3	0
0	11180	1117.9	0
0	11344	1134.3	0
0	11402	1140.1	0
0	11430	1142.9	0
0	11494	1149.3	0
0	11580	1157.9	0
0	11606	1160.5	0
0	11616	1161.5	0
0	11792	1179.1	0
0	12072	1207.1	0
0	12084	1208.3	0
0	12124	1212.3	0
0	12152	1215.1	0
0	12210	1220.9	0
0	12216	1221.5	0
0	12284	1228.3	0
0	12330	1232.9	0
0	12352	1235.1	0
0	12378	1237.7	0
0	12412	1241.1	0
0	12468	1246.7	0
0	12510	1250.9	0
0	12520	1251.9	0
0	12660	1265.9	0
0	12676	1267.5	0
0	12722	1272.1	0
0	12864	1286.3	0
0	12874	1287.3	0
0	12910	1290.9	0
0	12934	1293.3	0
0	12966	1296.5	0
0	13056	1305.5	0
0	13058	1305.7	0
0	13084	1308.3	0
0	13128	1312.7	0
0	13144	1314.3	0
0	13168	1316.7	0
0	13208	1320.7	0
0	13244	1324.3	0
0	13260	1325.9	0
0	13322	1332.1	0
0	13362	1336.1	0
0	13464	1346.3	0
0	13470	1346.9	0
0	13502	1350.1	0
0	13554	1355.3	0
0	13566	1356.5	0
0	13820	1381.9	0
0	13886	1388.5	0
0	13902	1390.1	0
0	13950	1394.9	0
0	13986	1398.5	0
0	14012	1401.1	0
0	14070	1406.9	0
0	14136	1413.5	0
0	14182	1418.1	0
0	14228	1422.7	0
0	14322	1432.1	0
0	14418	1441.7	0
0	14484	1448.3	0
0	14546	1454.5	0
0	14634	1463.3	0
0	14668	1466.7	0
0	14688	1468.7	0
0	14722	1472.1	0
0	14738	1473.7	0
0	14788	1478.7	0
0	14836	1483.5	0
0	14872	1487.1	0
0	14898	1489.7	0
0	15088	1508.7	0
0	15138	1513.7	0
0	15194	1519.3	0
0	15224	1522.3	0
0	15266	1526.5	0
0	15298	1529.7	0
0	15332	1533.1	0
0	15366	1536.5	0
0	15382	1538.1	0
0	15410	1540.9	0
0	15516	1551.5	0
0	15594	1559.3	0
0	15682	1568.1	0
0	15760	1575.9	0
0	15808	1580.7	0
0	15850	1584.9	0
0	15852	1585.1	0
0	15906	1590.5	0
0	15982	1598.1	0
0	16012	1601.1	0
0	16102	1610.1	0
0	16132	1613.1	0
0	16154	1615.3	0
0	16176	1617.5	0
0	16266	1626.5	0
0	16272	1627.1	0
0	16348	1634.7	0
0	16352	1635.1	0
0	16368	1636.7	0
0	16382	1638.1	0
0	16456	1645.5	0
0	16518	1651.7	0
0	16676	1667.5	0
0	16748	1674.7	0
0	16856	1685.5	0
0	16868	1686.7	0
0	16984	1698.3	0
0	17212	1721.1	0
0	17240	1723.9	0
0	17242	1724.1	0
0	17380	1737.9	0
0	17398	1739.7	0
0	17476	1747.5	0
0	17508	1750.7	0
0	17516	1751.5	0
0	17580	1757.9	0
0	17588	1758.7	0
0	17718	1771.7	0
0	17736	1773.5	0
0	17772	1777.1	0
0	17806	1780.5	0
0	17884	1788.3	0
0	17928	1792.7	0
0	17974	1797.3	0
0	18092	1809.1	0
0	18134	1813.3	0
0	18164	1816.3	0
0	18218	1821.7	0
0	18240	1823.9	0
0	18284	1828.3	0
0	18350	1834.9	0
0	18476	1847.5	0
0	18486	1848.5	0
0	18552	1855.1	0
0	18596	1859.5	0
0	18692	1869.1	0
0	18712	1871.1	0
0	18720	1871.9	0
0	18896	1889.5	0
0	18952	1895.1	0
0	19000	1899.9	0
0	19022	1902.1	0
0	19052	1905.1	0
0	19162	1916.1	0
0	19214	1921.3	0
0	19252	1925.1	0
0	19280	1927.9	0
0	19308	1930.7	0
0	19318	1931.7	0
0	19348	1934.7	0
0	19458	1945.7	0
0	19546	1954.5	0
0	19660	1965.9	0
0	19712	1971.1	0
0	19774	1977.3	0
0	19838	1983.7	0
0	19870	1986.9	0
0	20000	1999.9	0
0	20024	2002.3	0
0	20066	2006.5	0
0	20068	2006.7	0
0	20130	2012.9	0
0	20136	2013.5	0
0	20144	2014.3	0
0	20190	2018.9	0
0	20254	2025.3	0
0	20302	2030.1	0
0	20364	2036.3	0
0	20402	2040.1	0
0	20500	2049.9	0
0	20506	2050.5	0
0	20526	2052.5	0
0	20618	2061.7	0
0	20708	2070.7	0
0	20736	2073.5	0
0	20800	2079.9	0
0	20830	2082.9	0
0	20868	2086.7	0
0	20996	2099.5	0
0	21048	2104.7	0
0	21232	2123.1	0
0	21236	2123.5	0
0	21282	2128.1	0
0	21288	2128.7	0
0	21328	2132.7	0
0	21448	2144.7	0
0	21508	2150.7	0
0	21586	2158.5	0
0	21658	2165.7	0
0	21680	2167.9	0
0	21720	2171.9	0
0	21778	2177.7	0
0	21848	2184.7	0
0	21912	2191.1	0
0	21922	2192.1	0
0	21992	2199.1	0
0	22088	2208.7	0
0	22112	2211.1	0
0	22150	2214.9	0
0	22156	2215.5	0
0	22234	2223.3	0
0	22256	2225.5	0
0	22268	2226.7	0
0	22360	2235.9	0
0	22370	2236.9	0
0	22440	2243.9	0
0	22488	2248.7	0
0	22510	2250.9	0
0	22642	2264.1	0
0	22712	2271.1	0
0	22756	2275.5	0
0	22798	2279.7	0
0	22830	2282.9	0
0	22892	2289.1	0
0	23086	2308.5	0
0	23144	2314.3	0
0	23220	2321.9	0
0	23232	2323.1	0
0	23246	2324.5	0
0	23304	2330.3	0
0	23406	2340.5	0
0	23420	2341.9	0
0	23484	2348.3	0
0	23562	2356.1	0
0	23580	2357.9	0
0	23646	2364.5	0
0	23676	2367.5	0
0	23694	2369.3	0
0	23712	2371.1	0
0	23726	2372.5	0
0	23732	2373.1	0
0	23766	2376.5	0
0	23790	2378.9	0
0	23828	2382.7	0
0	23850	2384.9	0
0	23898	2389.7	0
0	23950	2394.9	0
0	23978	2397.7	0
0	24018	2401.7	0
0	24134	2413.3	0
0	24164	2416.3	0
0	24170	2416.9	0
0	24232	2423.1	0
0	24262	2426.1	0
0	24386	2438.5	0
0	24438	2443.7	0
0	24532	2453.1	0
0	24624	2462.3	0
0	24656	2465.5	0
0	24674	2467.3	0
0	24760	2475.9	0
0	24824	2482.3	0
0	24838	2483.7	0
0	24902	2490.1	0
0	24984	2498.3	0
0	25006	2500.5	0
0	25076	2507.5	0
0	25130	2512.9	0
0	25260	2525.9	0
0	25302	2530.1	0
0	25360	2535.9	0
0	25430	2542.9	0
0	25482	2548.1	0
0	25524	2552.3	0
0	25548	2554.7	0
0	25576	2557.5	0
0	25582	2558.1	0
0	25614	2561.3	0
0	25752	2575.1	0
0	25782	2578.1	0
0	25844	2584.3	0
0	25910	2590.9	0
0	25974	2597.3	0
0	25982	2598.1	0
0	26034	2603.3	0
0	26076	2607.5	0
0	26098	2609.7	0
0	26128	2612.7	0
0	26218	2621.7	0
0	26284	2628.3	0
0	26310	2630.9	0
0	26338	2633.7	0
0	26354	2635.3	0
0	26418	2641.7	0
0	26470	2646.9	0
0	26516	2651.5	0
0	26710	2670.9	0
0	26734	2673.3	0
0	26766	2676.5	0
0	26784	2678.3	0
0	26828	2682.7	0
0	26850	2684.9	0
0	26884	2688.3	0
0	27002	2700.1	0
0	27014	2701.3	0
0	27024	2702.3	0
0	27038	2703.7	0
0	27082	2708.1	0
0	27308	2730.7	0
0	27340	2733.9	0
0	27390	2738.9	0
0	27526	2752.5	0
0	27534	2753.3	0
0	27574	2757.3	0
0	27584	2758.3	0
0	27642	2764.1	0
0	27668	2766.7	0
0	27806	2780.5	0
0	27882	2788.1	0
0	27972	2797.1	0
0	28016	2801.5	0
0	28030	2802.9	0
0	28086	2808.5	0
0	28140	2813.9	0
0	28242	2824.1	0
0	28284	2828.3	0
0	28336	2833.5	0
0	28356	2835.5	0
0	28372	2837.1	0
0	28496	2849.5	0
0	28524	2852.3	0
0	28622	2862.1	0
0	28632	2863.1	0
0	28664	2866.3	0
0	28712	2871.1	0
0	28714	2871.3	0
0	28812	2881.1	0
0	28824	2882.3	0
0	28898	2889.7	0
0	28994	2899.3	0
0	29086	2908.5	0
0	29120	2911.9	0
0	29208	2920.7	0
0	29248	2924.7	0
0	29302	2930.1	0
0	29394	2939.3	0
0	29416	2941.5	0
0	29498	2949.7	0
0	29568	2956.7	0
0	29592	2959.1	0
0	29644	2964.3	0
0	29836	2983.5	0
0	29864	2986.3	0
0	29898	2989.7	0
0	29986	2998.5	0
0	30006	3000.5	0
0	30210	3020.9	0
0	30258	3025.7	0
0	30288	3028.7	0
0	30312	3031.1	0
0	30336	3033.5	0
0	30344	3034.3	0
0	30386	3038.5	0
0	30406	3040.5	0
0	30416	3041.5	0
0	30434	3043.3	0
0	30528	3052.7	0
0	30616	3061.5	0
0	30664	3066.3	0
0	30678	3067.7	0
0	30740	3073.9	0
0	30790	3078.9	0
0	30812	3081.1	0
0	30830	3082.9	0
0	30936	3093.5	0
0	30946	3094.5	0
0	30962	3096.1	0
0	30988	3098.7	0
0	31126	3112.5	0
0	31226	3122.5	0
0	31306	3130.5	0
0	31330	3132.9	0
0	31422	3142.1	0
0	31488	3148.7	0
0	31524	3152.3	0
0	31806	3180.5	0
0	31896	3189.5	0
0	31976	3197.5	0
0	32044	3204.3	0
0	32046	3204.5	0
0	32050	3204.9	0
0	32072	3207.1	0
0	32144	3214.3	0
0	32232	3223.1	0
0	32254	3225.3	0
0	32274	3227.3	0
0	32298	3229.7	0
0	32334	3233.3	0
0	32344	3234.3	0
0	32380	3237.9	0
0	32398	3239.7	0
0	32432	3243.1	0
0	32504	3250.3	0
0	32550	3254.9	0
0	32554	3255.3	0
0	32594	3259.3	0
0	32666	3266.5	0
0	32826	3282.5	0
0	32990	3298.9	0
0	33006	3300.5	0
0	33010	3300.9	0
0	33082	3308.1	0
0	33118	3311.7	0
0	33162	3316.1	0
0	33194	3319.3	0
0	33196	3319.5	0
0	33326	3332.5	0
0	33422	3342.1	0
0	33440	3343.9	0
0	33448	3344.7	0
0	33452	3345.1	0
0	33512	3351.1	0
0	33520	3351.9	0
0	33718	3371.7	0
0	33826	3382.5	0
0	33846	3384.5	0
0	33890	3388.9	0
0	33908	3390.7	0
0	33950	3394.9	0
0	33964	3396.3	0
0	34070	3406.9	0
0	34102	3410.1	0
0	34148	3414.7	0
0	34194	3419.3	0
0	34200	3419.9	0
0	34204	3420.3	0
0	34242	3424.1	0
0	34280	3427.9	0
0	34360	3435.9	0
0	34414	3441.3	0
0	34516	3451.5	0
0	34540	3453.9	0
0	34592	3459.1	0
0	34610	3460.9	0
0	34654	3465.3	0
0	34748	3474.7	0
0	34774	3477.3	0
0	34830	3482.9	0
0	34844	3484.3	0
0	34962	3496.1	0
0	35048	3504.7	0
0	35128	3512.7	0
0	35134	3513.3	0
0	35184	3518.3	0
0	35232	3523.1	0
0	35300	3529.9	0
0	35334	3533.3	0
0	35348	3534.7	0
0	35382	3538.1	0
0	35512	3551.1	0
0	35610	3560.9	0
0	35756	3575.5	0
0	35826	3582.5	0
0	35844	3584.3	0
0	35858	3585.7	0
0	35886	3588.5	0
0	35952	3595.1	0
0	36018	3601.7	0
0	36098	3609.7	0
0	36114	3611.3	0
0	36178	3617.7	0
0	36234	3623.3	0
0	36252	3625.1	0
0	36290	3628.9	0
0	36348	3634.7	0
0	36450	3644.9	0
0	36518	3651.7	0
0	36642	3664.1	0
0	36710	3670.9	0
0	36712	3671.1	0
0	36768	3676.7	0
0	36794	3679.3	0
0	36816	3681.5	0
0	36900	3689.9	0
0	36978	3697.7	0
0	37128	3712.7	0
0	37334	3733.3	0
0	37420	3741.9	0
0	37422	3742.1	0
0	37436	3743.5	0
0	37498	3749.7	0
0	37528	3752.7	0
0	37552	3755.1	0
0	37620	3761.9	0
0	37676	3767.5	0
0	37712	3771.1	0
0	37766	3776.5	0
0	37786	3778.5	0
0	37842	3784.1	0
0	37882	3788.1	0
0	37922	3792.1	0
0	37924	3792.3	0
0	37944	3794.3	0
0	38062	3806.1	0
0	38076	3807.5	0
0	38084	3808.3	0
0	38190	3818.9	0
0	38214	3821.3	0
0	38278	3827.7	0
0	38358	3835.7	0
0	38382	3838.1	0
0	38396	3839.5	0
0	38432	3843.1	0
0	38458	3845.7	0
0	38550	3854.9	0
0	38614	3861.3	0
0	38622	3862.1	0
0	38642	3864.1	0
0	38660	3865.9	0
0	38762	3876.1	0
0	38780	3877.9	0
0	38794	3879.3	0
0	38914	3891.3	0
0	39062	3906.1	0
0	39096	3909.5	0
0	39124	3912.3	0
0	39140	3913.9	0
0	39172	3917.1	0
0	39250	3924.9	0
0	39278	3927.7	0
0	39284	3928.3	0
0	39414	3941.3	0
0	39462	3946.1	0
0	39510	3950.9	0
0	39632	3963.1	0
0	39664	3966.3	0
0	39676	3967.5	0
0	39796	3979.5	0
0	39864	3986.3	0
0	39956	3995.5	0
0	39968	3996.7	0
0	39994	3999.3	0
0	40018	4001.7	0
0	40072	4007.1	0
0	40176	4017.5	0
0	40282	4028.1	0
0	40332	4033.1	0
0	40436	4043.5	0
0	40474	4047.3	0
0	40500	4049.9	0
0	40548	4054.7	0
0	40630	4062.9	0
0	40660	4065.9	0
0	40816	4081.5	0
0	40818	4081.7	0
0	40854	4085.3	0
0	40922	4092.1	0
0	41024	4102.3	0
0	41076	4107.5	0
0	41154	4115.3	0
0	41192	4119.1	0
0	41230	4122.9	0
0	41324	4132.3	0
0	41342	4134.1	0
0	41366	4136.5	0
0	41396	4139.5	0
0	41464	4146.3	0
0	41506	4150.5	0
0	41526	4152.5	0
0	41544	4154.3	0
0	41604	4160.3	0
0	41608	4160.7	0
0	41666	4166.5	0
0	41716	4171.5	0
0	41720	4171.9	0
0	41986	4198.5	0
0	42092	4209.1	0
0	42124	4212.3	0
0	42132	4213.1	0
0	42152	4215.1	0
0	42314	4231.3	0
0	42344	4234.3	0
0	42420	4241.9	0
0	42530	4252.9	0
0	42594	4259.3	0
0	42660	4265.9	0
0	42788	4278.7	0
0	42854	4285.3	0
0	42894	4289.3	0
0	43006	4300.5	0
0	43060	4305.9	0
0	43068	4306.7	0
0	43122	4312.1	0
0	43184	4318.3	0
0	43272	4327.1	0
0	43294	4329.3	0
0	43310	4330.9	0
0	43334	4333.3	0
0	43378	4337.7	0
0	43428	4342.7	0
0	43538	4353.7	0
0	43568	4356.7	0
0	43604	4360.3	0
0	43640	4363.9	0
0	43722	4372.1	0
0	43772	4377.1	0
0	43992	4399.1	0
0	44010	4400.9	0
0	44078	4407.7	0
0	44114	4411.3	0
0	44178	4417.7	0
0	44244	4424.3	0
0	44310	4430.9	0
0	44374	4437.3	0
0	44398	4439.7	0
0	44474	4447.3	0
0	44494	4449.3	0
0	44534	4453.3	0
0	44580	4457.9	0
0	44636	4463.5	0
0	44680	4467.9	0
0	44796	4479.5	0
0	44892	4489.1	0
0	44940	4493.9	0
0	44982	4498.1	0
0	45026	4502.5	0
0	45076	4507.5	0
0	45242	4524.1	0
0	45262	4526.1	0
0	45302	4530.1	0
0	45474	4547.3	0
0	45516	4551.5	0
0	45560	4555.9	0
0	45682	4568.1	0
0	45796	4579.5	0
0	45900	4589.9	0
0	46018	4601.7	0
0	46036	4603.5	0
0	46084	4608.3	0
0	46096	4609.5	0
0	46140	4613.9	0
0	46156	4615.5	0
0	46194	4619.3	0
0	46292	4629.1	0
0	46352	4635.1	0
0	46406	4640.5	0
0	46464	4646.3	0
0	46478	4647.7	0
0	46480	4647.9	0
0	46512	4651.1	0
0	46664	4666.3	0
0	46834	4683.3	0
0	46980	4697.9	0
0	47112	4711.1	0
0	47122	4712.1	0
0	47166	4716.5	0
0	47338	4733.7	0
0	47356	4735.5	0
0	47480	4747.9	0
0	47498	4749.7	0
0	47548	4754.7	0
0	47566	4756.5	0
0	47588	4758.7	0
0	47736	4773.5	0
0	47826	4782.5	0
0	47856	4785.5	0
0	47976	4797.5	0
0	48050	4804.9	0
0	48108	4810.7	0
0	48160	4815.9	0
0	48224	4822.3	0
0	48234	4823.3	0
0	48298	4829.7	0
0	48470	4846.9	0
0	48484	4848.3	0
0	48512	4851.1	0
0	48590	4858.9	0
0	48612	4861.1	0
0	48664	4866.3	0
0	48680	4867.9	0
0	48726	4872.5	0
0	48798	4879.7	0
0	48826	4882.5	0
0	48904	4890.3	0
0	48976	4897.5	0
0	48994	4899.3	0
0	49024	4902.3	0
0	49058	4905.7	0
0	49144	4914.3	0
0	49178	4917.7	0
0	49184	4918.3	0
0	49200	4919.9	0
0	49210	4920.9	0
0	49254	4925.3	0
0	49296	4929.5	0
0	49302	4930.1	0
0	49356	4935.5	0
0	49546	4954.5	0
0	49580	4957.9	0
0	49598	4959.7	0
0	49626	4962.5	0
0	49672	4967.1	0
0	49730	4972.9	0
0	49794	4979.3	0
0	49932	4993.1	0
0	50206	5020.5	0
0	50208	5020.7	0
0	50264	5026.3	0
0	50266	5026.5	0
0	50282	5028.1	0
0	50286	5028.5	0
0	50374	5037.3	0
0	50432	5043.1	0
0	50580	5057.9	0
0	50590	5058.9	0
0	50594	5059.3	0
0	50688	5068.7	0
0	50726	5072.5	0
0	50754	5075.3	0
0	50796	5079.5	0
0	50828	5082.7	0
0	50938	5093.7	0
0	50972	5097.1	0
0	51180	5117.9	0
0	51228	5122.7	0
0	51260	5125.9	0
0	51342	5134.1	0
0	51420	5141.9	0
0	51446	5144.5	0
0	51464	5146.3	0
0	51524	5152.3	0
0	51586	5158.5	0
0	51678	5167.7	0
0	51708	5170.7	0
0	51732	5173.1	0
0	51758	5175.7	0
0	51760	5175.9	0
0	51842	5184.1	0
0	51894	5189.3	0
0	51950	5194.9	0
0	52208	5220.7	0
0	52326	5232.5	0
0	52418	5241.7	0
0	52458	5245.7	0
0	52470	5246.9	0
0	52502	5250.1	0
0	52552	5255.1	0
0	52638	5263.7	0
0	52686	5268.5	0
0	52764	5276.3	0
0	52864	5286.3	0
0	52906	5290.5	0
0	52946	5294.5	0
0	53164	5316.3	0
0	53216	5321.5	0
0	53302	5330.1	0
0	53320	5331.9	0
0	53344	5334.3	0
0	53372	5337.1	0
0	53424	5342.3	0
0	53510	5350.9	0
0	53554	5355.3	0
0	53768	5376.7	0
0	53798	5379.7	0
0	53916	5391.5	0
0	54126	5412.5	0
0	54244	5424.3	0
0	54344	5434.3	0
0	54414	5441.3	0
0	54436	5443.5	0
0	54478	5447.7	0
0	54508	5450.7	0
0	54548	5454.7	0
0	54696	5469.5	0
0	54720	5471.9	0
0	54772	5477.1	0
0	54806	5480.5	0
0	54904	5490.3	0
0	54936	5493.5	0
0	54994	5499.3	0
0	55028	5502.7	0
0	55050	5504.9	0
0	55100	5509.9	0
0	55136	5513.5	0
0	55310	5530.9	0
0	55316	5531.5	0
0	55340	5533.9	0
0	55424	5542.3	0
0	55548	5554.7	0
0	55684	5568.3	0
0	55718	5571.7	0
0	55774	5577.3	0
0	55794	5579.3	0
0	55840	5583.9	0
0	55852	5585.1	0
0	55918	5591.7	0
0	56028	5602.7	0
0	56084	5608.3	0
0	56096	5609.5	0
0	56224	5622.3	0
0	56240	5623.9	0
0	56324	5632.3	0
0	56444	5644.3	0
0	56460	5645.9	0
0	56644	5664.3	0
0	56764	5676.3	0
0	56804	5680.3	0
0	56878	5687.7	0
0	56914	5691.3	0
0	56970	5696.9	0
0	57014	5701.3	0
0	57054	5705.3	0
0	57126	5712.5	0
0	57134	5713.3	0
0	57184	5718.3	0
0	57230	5722.9	0
0	57270	5726.9	0
0	57366	5736.5	0
0	57396	5739.5	0
0	57522	5752.1	0
0	57692	5769.1	0
0	57710	5770.9	0
0	57790	5778.9	0
0	57834	5783.3	0
0	57848	5784.7	0
0	57882	5788.1	0
0	57918	5791.7	0
0	58034	5803.3	0
0	58058	5805.7	0
0	58202	5820.1	0
0	58242	5824.1	0
0	58466	5846.5	0
0	58586	5858.5	0
0	58590	5858.9	0
0	58620	5861.9	0
0	58624	5862.3	0
0	58646	5864.5	0
0	58816	5881.5	0
0	58836	5883.5	0
0	58928	5892.7	0
0	58944	5894.3	0
0	58972	5897.1	0
0	59108	5910.7	0
0	59146	5914.5	0
0	59182	5918.1	0
0	59214	5921.3	0
0	59266	5926.5	0
0	59270	5926.9	0
0	59364	5936.3	0
0	59424	5942.3	0
0	59432	5943.1	0
0	59586	5958.5	0
0	59598	5959.7	0
0	59636	5963.5	0
0	59710	5970.9	0
0	59854	5985.3	0
0	59914	5991.3	0
0	59956	5995.5	0
0	59982	5998.1	0
0	60008	6000.7	0
0	60040	6003.9	0
0	60088	6008.7	0
0	60116	6011.5	0
0	60164	6016.3	0
0	60188	6018.7	0
0	60288	6028.7	0
0	60350	6034.9	0
0	60396	6039.5	0
0	60416	6041.5	0
0	60426	6042.5	0
0	60500	6049.9	0
0	60540	6053.9	0
0	60616	6061.5	0
0	60698	6069.7	0
0	60732	6073.1	0
0	60816	6081.5	0
0	60818	6081.7	0
0	60824	6082.3	0
0	60904	6090.3	0
0	60986	6098.5	0
0	61000	6099.9	0
0	61010	6100.9	0
0	61082	6108.1	0
0	61120	6111.9	0
0	61362	6136.1	0
0	61472	6147.1	0
0	61514	6151.3	0
0	61556	6155.5	0
0	61644	6164.3	0
0	61764	6176.3	0
0	61912	6191.1	0
0	61962	6196.1	0
0	62100	6209.9	0
0	62162	6216.1	0
0	62184	6218.3	0
0	62204	6220.3	0
0	62262	6226.1	0
0	62362	6236.1	0
0	62390	6238.9	0
0	62402	6240.1	0
0	62404	6240.3	0
0	62478	6247.7	0
0	62498	6249.7	0
0	62524	6252.3	0
0	62554	6255.3	0
0	62730	6272.9	0
0	62772	6277.1	0
0	62876	6287.5	0
0	62894	6289.3	0
0	63084	6308.3	0
0	63100	6309.9	0
0	63142	6314.1	0
0	63154	6315.3	0
0	63364	6336.3	0
0	63368	6336.7	0
0	63396	6339.5	0
0	63426	6342.5	0
0	63444	6344.3	0
0	63494	6349.3	0
0	63600	6359.9	0
0	63618	6361.7	0
0	63648	6364.7	0
0	63770	6376.9	0
0	63828	6382.7	0
0	63898	6389.7	0
0	64158	6415.7	0
0	64216	6421.5	0
0	64284	6428.3	0
0	64378	6437.7	0
0	64384	6438.3	0
0	64402	6440.1	0
0	64414	6441.3	0
0	64482	6448.1	0
0	64538	6453.7	0
0	64558	6455.7	0
0	64612	6461.1	0
0	64782	6478.1	0
0	64834	6483.3	0
0	64946	6494.5	0
0	65024	6502.3	0
0	65110	6510.9	0
0	65144	6514.3	0
0	65180	6517.9	0
0	65210	6520.9	0
0	65292	6529.1	0
0	65368	6536.7	0
0	65460	6545.9	0
0	65490	6548.9	0
0	65586	6558.5	0
0	65604	6560.3	0
0	65630	6562.9	0
0	65672	6567.1	0
0	65736	6573.5	0
0	65782	6578.1	0
0	65790	6578.9	0
0	65930	6592.9	0
0	66018	6601.7	0
0	66086	6608.5	0
0	66148	6614.7	0
0	66162	6616.1	0
0	66232	6623.1	0
0	66258	6625.7	0
0	66302	6630.1	0
0	66340	6633.9	0
0	66360	6635.9	0
0	66468	6646.7	0
0	66510	6650.9	0
0	66526	6652.5	0
0	66616	6661.5	0
0	66702	6670.1	0
0	66704	6670.3	0
0	66758	6675.7	0
0	66818	6681.7	0
0	66836	6683.5	0
0	66868	6686.7	0
0	66942	6694.1	0
0	66984	6698.3	0
0	67006	6700.5	0
0	67016	6701.5	0
0	67052	6705.1	0
0	67194	6719.3	0
0	67296	6729.5	0
0	67310	6730.9	0
0	67344	6734.3	0
0	67364	6736.3	0
0	67482	6748.1	0
0	67492	6749.1	0
0	67506	6750.5	0
0	67534	6753.3	0
0	67538	6753.7	0
0	67578	6757.7	0
0	67640	6763.9	0
0	67698	6769.7	0
0	67714	6771.3	0
0	67758	6775.7	0
0	67778	6777.7	0
0	67852	6785.1	0
0	67910	6790.9	0
0	67964	6796.3	0
0	68000	6799.9	0
0	68046	6804.5	0
0	68082	6808.1	0
0	68188	6818.7	0
0	68202	6820.1	0
0	68344	6834.3	0
0	68346	6834.5	0
0	68470	6846.9	0
0	68720	6871.9	0
0	68818	6881.7	0
0	68828	6882.7	0
0	68832	6883.1	0
0	68880	6887.9	0
0	68900	6889.9	0
0	68930	6892.9	0
0	68948	6894.7	0
0	69012	6901.1	0
0	69162	6916.1	0
0	69220	6921.9	0
0	69222	6922.1	0
0	69234	6923.3	0
0	69258	6925.7	0
0	69342	6934.1	0
0	69398	6939.7	0
0	69410	6940.9	0
0	69470	6946.9	0
0	69488	6948.7	0
0	69578	6957.7	0
0	69618	6961.7	0
0	69630	6962.9	0
0	69710	6970.9	0
0	69730	6972.9	0
0	69910	6990.9	0
0	69958	6995.7	0
0	70056	7005.5	0
0	70110	7010.9	0
0	70168	7016.7	0
0	70270	7026.9	0
0	70284	7028.3	0
0	70332	7033.1	0
0	70338	7033.7	0
0	70354	7035.3	0
0	70408	7040.7	0
0	70480	7047.9	0
0	70608	7060.7	0
0	70628	7062.7	0
0	70648	7064.7	0
0	70700	7069.9	0
0	70734	7073.3	0
0	70770	7076.9	0
0	70802	7080.1	0
0	70890	7088.9	0
0	70914	7091.3	0
0	71068	7106.7	0
0	71146	7114.5	0
0	71156	7115.5	0
0	71302	7130.1	0
0	71506	7150.5	0
0	71570	7156.9	0
0	71604	7160.3	0
0	71686	7168.5	0
0	71780	7177.9	0
0	71988	7198.7	0
0	72010	7200.9	0
0	72078	7207.7	0
0	72126	7212.5	0
0	72182	7218.1	0
0	72234	7223.3	0
0	72304	7230.3	0
0	72354	7235.3	0
0	72372	7237.1	0
0	72386	7238.5	0
0	72474	7247.3	0
0	72498	7249.7	0
0	72556	7255.5	0
0	72620	7261.9	0
0	72644	7264.3	0
0	72672	7267.1	0
0	72674	7267.3	0
0	72694	7269.3	0
0	72712	7271.1	0
0	72742	7274.1	0
0	72810	7280.9	0
0	72904	7290.3	0
0	72944	7294.3	0
0	73168	7316.7	0
0	73210	7320.9	0
0	73266	7326.5	0
0	73360	7335.9	0
0	73396	7339.5	0
0	73448	7344.7	0
0	73510	7350.9	0
0	73614	7361.3	0
0	73646	7364.5	0
0	73732	7373.1	0
0	73764	7376.3	0
0	73832	7383.1	0
0	73872	7387.1	0
0	73888	7388.7	0
0	73986	7398.5	0
0	74154	7415.3	0
0	74380	7437.9	0
0	74468	7446.7	0
0	74498	7449.7	0
0	74554	7455.3	0
0	74626	7462.5	0
0	74634	7463.3	0
0	74654	7465.3	0
0	74758	7475.7	0
0	74812	7481.1	0
0	74958	7495.7	0
0	75122	7512.1	0
0	75208	7520.7	0
0	75250	7524.9	0
0	75270	7526.9	0
0	75304	7530.3	0
0	75312	7531.1	0
0	75358	7535.7	0
0	75378	7537.7	0
0	75444	7544.3	0
0	75532	7553.1	0
0	75552	7555.1	0
0	75626	7562.5	0
0	75658	7565.7	0
0	75780	7577.9	0
0	75802	7580.1	0
0	76012	7601.1	0
0	76068	7606.7	0
0	76098	7609.7	0
0	76134	7613.3	0
0	76188	7618.7	0
0	76234	7623.3	0
0	76250	7624.9	0
0	76270	7626.9	0
0	76444	7644.3	0
0	76474	7647.3	0
0	76510	7650.9	0
0	76536	7653.5	0
0	76620	7661.9	0
0	76638	7663.7	0
0	76658	7665.7	0
0	76674	7667.3	0
0	76720	7671.9	0
0	76754	7675.3	0
0	76848	7684.7	0
0	76906	7690.5	0
0	76948	7694.7	0
0	76972	7697.1	0
0	77034	7703.3	0
0	77276	7727.5	0
0	77358	7735.7	0
0	77410	7740.9	0
0	77468	7746.7	0
0	77546	7754.5	0
0	77604	7760.3	0
0	77662	7766.1	0
0	77698	7769.7	0
0	77768	7776.7	0
0	77816	7781.5	0
0	77878	7787.7	0
0	77932	7793.1	0
0	77950	7794.9	0
0	78000	7799.9	0
0	78044	7804.3	0
0	78080	7807.9	0
0	78136	7813.5	0
0	78260	7825.9	0
0	78316	7831.5	0
0	78386	7838.5	0
0	78400	7839.9	0
0	78562	7856.1	0
0	78614	7861.3	0
0	78712	7871.1	0
0	78770	7876.9	0
0	78782	7878.1	0
0	78792	7879.1	0
0	78830	7882.9	0
0	78868	7886.7	0
0	78966	7896.5	0
0	79030	7902.9	0
0	79118	7911.7	0
0	79132	7913.1	0
0	79136	7913.5	0
0	79138	7913.7	0
0	79390	7938.9	0
0	79428	7942.7	0
0	79464	7946.3	0
0	79506	7950.5	0
0	79602	7960.1	0
0	79688	7968.7	0
0	79738	7973.7	0
0	79752	7975.1	0
0	79756	7975.5	0
0	79830	7982.9	0
0	79950	7994.9	0
0	80062	8006.1	0
0	80174	8017.3	0
0	80452	8045.1	0
0	80454	8045.3	0
0	80482	8048.1	0
0	80518	8051.7	0
0	80580	8057.9	0
0	80594	8059.3	0
0	80718	8071.7	0
0	80746	8074.5	0
0	80794	8079.3	0
0	80840	8083.9	0
0	80918	8091.7	0
0	81020	8101.9	0
0	81066	8106.5	0
0	81120	8111.9	0
0	81208	8120.7	0
0	81236	8123.5	0
0	81300	8129.9	0
0	81346	8134.5	0
0	81378	8137.7	0
0	81466	8146.5	0
0	81514	8151.3	0
0	81584	8158.3	0
0	81678	8167.7	0
0	81680	8167.9	0
0	81728	8172.7	0
0	81808	8180.7	0
0	81822	8182.1	0
0	81876	8187.5	0
0	81896	8189.5	0
0	81900	8189.9	0
0	81922	8192.1	0
0	81968	8196.7	0
0	81984	8198.3	0
0	81988	8198.7	0
0	82028	8202.7	0
0	82052	8205.1	0
0	82112	8211.1	0
0	82184	8218.3	0
0	82210	8220.9	0
0	82258	8225.7	0
0	82282	8228.1	0
0	82398	8239.7	0
0	82476	8247.5	0
0	82526	8252.5	0
0	82550	8254.9	0
0	82632	8263.1	0
0	82676	8267.5	0
0	82908	8290.7	0
0	82950	8294.9	0
0	82978	8297.7	0
0	83036	8303.5	0
0	83064	8306.3	0
0	83080	8307.9	0
0	83130	8312.9	0
0	83278	8327.7	0
0	83364	8336.3	0
0	83458	8345.7	0
0	83524	8352.3	0
0	83590	8358.9	0
0	83610	8360.9	0
0	83628	8362.7	0
0	83648	8364.7	0
0	83810	8380.9	0
0	83860	8385.9	0
0	83882	8388.1	0
0	83948	8394.7	0
0	83996	8399.5	0
0	84040	8403.9	0
0	84178	8417.7	0
0	84298	8429.7	0
0	84384	8438.3	0
0	84410	8440.9	0
0	84516	8451.5	0
0	84534	8453.3	0
0	84638	8463.7	0
0	84758	8475.7	0
0	84860	8485.9	0
0	84926	8492.5	0
0	84960	8495.9	0
0	85008	8500.7	0
0	85180	8517.9	0
0	85258	8525.7	0
0	85276	8527.5	0
0	85356	8535.5	0
0	85472	8547.1	0
0	85490	8548.9	0
0	85710	8570.9	0
0	85784	8578.3	0
0	85888	8588.7	0
0	85902	8590.1	0
0	85944	8594.3	0
0	85978	8597.7	0
0	86044	8604.3	0
0	86096	8609.5	0
0	86138	8613.7	0
0	86266	8626.5	0
0	86304	8630.3	0
0	86382	8638.1	0
0	86418	8641.7	0
0	86530	8652.9	0
0	86566	8656.5	0
0	86602	8660.1	0
0	86654	8665.3	0
0	86702	8670.1	0
0	86722	8672.1	0
0	86782	8678.1	0
0	86894	8689.3	0
0	87016	8701.5	0
0	87044	8704.3	0
0	87100	8709.9	0
0	87130	8712.9	0
0	87132	8713.1	0
0	87318	8731.7	0
0	87414	8741.3	0
0	87446	8744.5	0
0	87462	8746.1	0
0	87532	8753.1	0
0	87578	8757.7	0
0	87652	8765.1	0
0	87672	8767.1	0
0	87698	8769.7	0
0	87752	8775.1	0
0	87792	8779.1	0
0	87830	8782.9	0
0	87880	8787.9	0
0	87954	8795.3	0
0	87988	8798.7	0
0	88002	8800.1	0
0	88022	8802.1	0
0	88080	8807.9	0
0	88154	8815.3	0
0	88192	8819.1	0
0	88218	8821.7	0
0	88244	8824.3	0
0	88306	8830.5	0
0	88372	8837.1	0
0	88548	8854.7	0
0	88620	8861.9	0
0	88664	8866.3	0
0	88736	8873.5	0
0	88784	8878.3	0
0	88836	8883.5	0
0	88862	8886.1	0
0	88964	8896.3	0
0	88976	8897.5	0
0	89020	8901.9	0
0	89058	8905.7	0
0	89102	8910.1	0
0	89144	8914.3	0
0	89174	8917.3	0
0	89262	8926.1	0
0	89270	8926.9	0
0	89298	8929.7	0
0	89506	8950.5	0
0	89516	8951.5	0
0	89632	8963.1	0
0	89700	8969.9	0
0	89772	8977.1	0
0	89856	8985.5	0
0	89914	8991.3	0
0	89968	8996.7	0
0	89978	8997.7	0
0	90000	8999.9	0
0	90030	9002.9	0
0	90120	9011.9	0
0	90136	9013.5	0
0	90154	9015.3	0
0	90168	9016.7	0
0	90192	9019.1	0
0	90202	9020.1	0
0	90342	9034.1	0
0	90364	9036.3	0
0	90380	9037.9	0
0	90412	9041.1	0
0	90494	9049.3	0
0	90510	9050.9	0
0	90648	9064.7	0
0	90698	9069.7	0
0	90736	9073.5	0
0	90778	9077.7	0
0	90860	9085.9	0
0	90904	9090.3	0
0	90920	9091.9	0
0	90946	9094.5	0
0	90952	9095.1	0
0	90998	9099.7	0
0	91002	9100.1	0
0	91226	9122.5	0
0	91246	9124.5	0
0	91340	9133.9	0
0	91536	9153.5	0
0	91568	9156.7	0
0	91712	9171.1	0
0	91754	9175.3	0
0	91772	9177.1	0
0	91798	9179.7	0
0	91816	9181.5	0
0	91886	9188.5	0
0	91912	9191.1	0
0	91920	9191.9	0
0	91986	9198.5	0
0	92094	9209.3	0
0	92118	9211.7	0
0	92194	9219.3	0
0	92292	9229.1	0
0	92306	9230.5	0
0	92368	9236.7	0
0	92418	9241.7	0
0	92480	9247.9	0
0	92522	9252.1	0
0	92630	9262.9	0
0	92666	9266.5	0
0	92710	9270.9	0
0	92798	9279.7	0
0	92872	9287.1	0
0	92914	9291.3	0
0	92960	9295.9	0
0	93032	9303.1	0
0	93170	9316.9	0
0	93206	9320.5	0
0	93250	9324.9	0
0	93270	9326.9	0
0	93380	9337.9	0
0	93474	9347.3	0
0	93506	9350.5	0
0	93554	9355.3	0
0	93826	9382.5	0
0	93888	9388.7	0
0	94038	9403.7	0
0	94116	9411.5	0
0	94206	9420.5	0
0	94212	9421.1	0
0	94274	9427.3	0
0	94322	9432.1	0
0	94354	9435.3	0
0	94416	9441.5	0
0	94460	9445.9	0
0	94484	9448.3	0
0	94576	9457.5	0
0	94592	9459.1	0
0	94618	9461.7	0
0	94638	9463.7	0
0	94650	9464.9	0
0	94740	9473.9	0
0	94746	9474.5	0
0	94812	9481.1	0
0	94836	9483.5	0
0	94894	9489.3	0
0	94966	9496.5	0
0	94986	9498.5	0
0	95040	9503.9	0
0	95080	9507.9	0
0	95242	9524.1	0
0	95256	9525.5	0
0	95306	9530.5	0
0	95576	9557.5	0
0	95594	9559.3	0
0	95684	9568.3	0
0	95782	9578.1	0
0	95888	9588.7	0
0	95938	9593.7	0
0	95994	9599.3	0
0	96004	9600.3	0
0	96052	9605.1	0
0	96066	9606.5	0
0	96070	9606.9	0
0	96136	9613.5	0
0	96160	9615.9	0
0	96188	9618.7	0
0	96258	9625.7	0
0	96274	9627.3	0
0	96286	9628.5	0
0	96308	9630.7	0
0	96378	9637.7	0
0	96420	9641.9	0
0	96464	9646.3	0
0	96472	9647.1	0
0	96578	9657.7	0
0	96604	9660.3	0
0	96660	9665.9	0
0	96664	9666.3	0
0	96668	9666.7	0
0	96708	9670.7	0
0	96742	9674.1	0
0	96786	9678.5	0
0	96804	9680.3	0
0	96850	9684.9	0
0	96918	9691.7	0
0	97028	9702.7	0
0	97066	9706.5	0
0	97102	9710.1	0
0	97134	9713.3	0
0	97174	9717.3	0
0	97186	9718.5	0
0	97230	9722.9	0
0	97238	9723.7	0
0	97270	9726.9	0
0	97324	9732.3	0
0	97376	9737.5	0
0	97410	9740.9	0
0	97446	9744.5	0
0	97514	9751.3	0
0	97612	9761.1	0
0	97696	9769.5	0
0	97736	9773.5	0
0	97776	9777.5	0
0	97856	9785.5	0
0	97946	9794.5	0
0	97986	9798.5	0
0	98062	9806.1	0
0	98078	9807.7	0
0	98118	9811.7	0
0	98288	9828.7	0
0	98312	9831.1	0
0	98338	9833.7	0
0	98362	9836.1	0
0	98410	9840.9	0
0	98624	9862.3	0
0	98662	9866.1	0
0	98832	9883.1	0
0	98870	9886.9	0
0	98876	9887.5	0
0	98938	9893.7	0
0	98944	9894.3	0
0	98968	9896.7	0
0	99052	9905.1	0
0	99208	9920.7	0
0	99220	9921.9	0
0	99290	9928.9	0
0	99326	9932.5	0
0	99382	9938.1	0
0	99410	9940.9	0
0	99422	9942.1	0
0	99426	9942.5	0
0	99458	9945.7	0
0	99494	9949.3	0
0	99584	9958.3	0
0	99594	9959.3	0
0	99672	9967.1	0
0	99702	9970.1	0
0	99722	9972.1	0
0	99816	9981.5	0
0	99834	9983.3	0
0	99852	9985.1	0
0	99902	9990.1	0
0	100130	10012.9	0
0	100196	10019.5	0
0	100234	10023.3	0
0	100256	10025.5	0
0	100258	10025.7	0
0	100344	10034.3	0
0	100370	10036.9	0
0	100430	10042.9	0
0	100572	10057.1	0
0	100588	10058.7	0
0	100634	10063.3	0
0	100688	10068.7	0
0	100806	10080.5	0
0	100864	10086.3	0
0	100886	10088.5	0
0	101026	10102.5	0
0	101030	10102.9	0
0	101180	10117.9	0
0	101216	10121.5	0
0	101224	10122.3	0
0	101288	10128.7	0
0	101298	10129.7	0
0	101386	10138.5	0
0	101406	10140.5	0
0	101522	10152.1	0
0	101564	10156.3	0
0	101610	10160.9	0
0	101642	10164.1	0