file 6099 1534831671                                            
version 2
run General-0-20180821-15:07:43-10948
attr configname General
attr datetime 20180821-15:07:43
attr experiment General
attr inifile omnetpp.ini
attr iterationvars ""
attr iterationvarsf ""
attr measurement ""
attr network MobileNetwork
attr processid 10948
attr repetition 0
attr replication #0
attr resultdir results
attr runnumber 0
attr seedset 0

vector 0 MobileNetwork.host[0] coordX:vector ETV
attr interpolationmode linear
attr source xCoord(mobilityPos(mobilityStateChanged))
attr title "coord X, vector"
vector 1 MobileNetwork.host[0] coordY:vector ETV
attr interpolationmode linear
attr source yCoord(mobilityPos(mobilityStateChanged))
attr title "coord Y, vector"
vector 2 MobileNetwork.host[1] coordX:vector ETV
attr interpolationmode linear
attr source xCoord(mobilityPos(mobilityStateChanged))
attr title "coord X, vector"
vector 3 MobileNetwork.host[1] coordY:vector ETV
attr interpolationmode linear
attr source yCoord(mobilityPos(mobilityStateChanged))
attr title "coord Y, vector"
vector 4 MobileNetwork.host[2] coordX:vector ETV
attr interpolationmode linear
attr source xCoord(mobilityPos(mobilityStateChanged))
attr title "coord X, vector"
vector 5 MobileNetwork.host[2] coordY:vector ETV
attr interpolationmode linear
attr source yCoord(mobilityPos(mobilityStateChanged))
attr title "coord Y, vector"
vector 6 MobileNetwork.host[3] coordX:vector ETV
attr interpolationmode linear
attr source xCoord(mobilityPos(mobilityStateChanged))
attr title "coord X, vector"
vector 7 MobileNetwork.host[3] coordY:vector ETV
attr interpolationmode linear
attr source yCoord(mobilityPos(mobilityStateChanged))
attr title "coord Y, vector"
vector 8 MobileNetwork.host[4] coordX:vector ETV
attr interpolationmode linear
attr source xCoord(mobilityPos(mobilityStateChanged))
attr title "coord X, vector"
vector 9 MobileNetwork.host[4] coordY:vector ETV
attr interpolationmode linear
attr source yCoord(mobilityPos(mobilityStateChanged))
attr title "coord Y, vector"
vector 10 MobileNetwork.host[5] coordX:vector ETV
attr interpolationmode linear
attr source xCoord(mobilityPos(mobilityStateChanged))
attr title "coord X, vector"
vector 11 MobileNetwork.host[5] coordY:vector ETV
attr interpolationmode linear
attr source yCoord(mobilityPos(mobilityStateChanged))
attr title "coord Y, vector"
vector 12 MobileNetwork.host[6] coordX:vector ETV
attr interpolationmode linear
attr source xCoord(mobilityPos(mobilityStateChanged))
attr title "coord X, vector"
vector 13 MobileNetwork.host[6] coordY:vector ETV
attr interpolationmode linear
attr source yCoord(mobilityPos(mobilityStateChanged))
attr title "coord Y, vector"
vector 14 MobileNetwork.host[7] coordX:vector ETV
attr interpolationmode linear
attr source xCoord(mobilityPos(mobilityStateChanged))
attr title "coord X, vector"
vector 15 MobileNetwork.host[7] coordY:vector ETV
attr interpolationmode linear
attr source yCoord(mobilityPos(mobilityStateChanged))
attr title "coord Y, vector"
vector 16 MobileNetwork.host[8] coordX:vector ETV
attr interpolationmode linear
attr source xCoord(mobilityPos(mobilityStateChanged))
attr title "coord X, vector"
vector 17 MobileNetwork.host[8] coordY:vector ETV
attr interpolationmode linear
attr source yCoord(mobilityPos(mobilityStateChanged))
attr title "coord Y, vector"
vector 18 MobileNetwork.host[9] coordX:vector ETV
attr interpolationmode linear
attr source xCoord(mobilityPos(mobilityStateChanged))
attr title "coord X, vector"
vector 19 MobileNetwork.host[9] coordY:vector ETV
attr interpolationmode linear
attr source yCoord(mobilityPos(mobilityStateChanged))
attr title "coord Y, vector"
vector 20 MobileNetwork.host[10] coordX:vector ETV
attr interpolationmode linear
attr source xCoord(mobilityPos(mobilityStateChanged))
attr title "coord X, vector"
vector 21 MobileNetwork.host[10] coordY:vector ETV
attr interpolationmode linear
attr source yCoord(mobilityPos(mobilityStateChanged))
attr title "coord Y, vector"
vector 22 MobileNetwork.host[11] coordX:vector ETV
attr interpolationmode linear
attr source xCoord(mobilityPos(mobilityStateChanged))
attr title "coord X, vector"
vector 23 MobileNetwork.host[11] coordY:vector ETV
attr interpolationmode linear
attr source yCoord(mobilityPos(mobilityStateChanged))
attr title "coord Y, vector"
vector 24 MobileNetwork.host[12] coordX:vector ETV
attr interpolationmode linear
attr source xCoord(mobilityPos(mobilityStateChanged))
attr title "coord X, vector"
vector 25 MobileNetwork.host[12] coordY:vector ETV
attr interpolationmode linear
attr source yCoord(mobilityPos(mobilityStateChanged))
attr title "coord Y, vector"
vector 26 MobileNetwork.host[13] coordX:vector ETV
attr interpolationmode linear
attr source xCoord(mobilityPos(mobilityStateChanged))
attr title "coord X, vector"
vector 27 MobileNetwork.host[13] coordY:vector ETV
attr interpolationmode linear
attr source yCoord(mobilityPos(mobilityStateChanged))
attr title "coord Y, vector"
vector 28 MobileNetwork.host[14] coordX:vector ETV
attr interpolationmode linear
attr source xCoord(mobilityPos(mobilityStateChanged))
attr title "coord X, vector"
vector 29 MobileNetwork.host[14] coordY:vector ETV
attr interpolationmode linear
attr source yCoord(mobilityPos(mobilityStateChanged))
attr title "coord Y, vector"
vector 30 MobileNetwork.host[15] coordX:vector ETV
attr interpolationmode linear
attr source xCoord(mobilityPos(mobilityStateChanged))
attr title "coord X, vector"
vector 31 MobileNetwork.host[15] coordY:vector ETV
attr interpolationmode linear
attr source yCoord(mobilityPos(mobilityStateChanged))
attr title "coord Y, vector"
0	5723 11 0 0 0 0 1 300 300 300 90000
1	5734 11 0 0 0 0 1 300 300 300 90000
2	5745 11 0 0 0 0 1 300 300 300 90000
3	5756 11 0 0 0 0 1 300 300 300 90000
4	5767 11 0 0 0 0 1 300 300 300 90000
5	5778 11 0 0 0 0 1 300 300 300 90000
6	5789 11 0 0 0 0 1 300 300 300 90000
7	5800 11 0 0 0 0 1 300 300 300 90000
8	5811 11 0 0 0 0 1 300 300 300 90000
9	5822 11 0 0 0 0 1 300 300 300 90000
10	5833 12 0 0 0 0 1 300 300 300 90000
11	5845 12 0 0 0 0 1 300 300 300 90000
12	5857 12 0 0 0 0 1 300 300 300 90000
13	5869 12 0 0 0 0 1 300 300 300 90000
14	5881 12 0 0 0 0 1 300 300 300 90000
15	5893 12 0 0 0 0 1 300 300 300 90000
16	5905 12 0 0 0 0 1 300 300 300 90000
17	5917 12 0 0 0 0 1 300 300 300 90000
18	5929 12 0 0 0 0 1 300 300 300 90000
19	5941 12 0 0 0 0 1 300 300 300 90000
20	5953 12 0 0 0 0 1 300 300 300 90000
21	5965 12 0 0 0 0 1 300 300 300 90000
22	5977 12 0 0 0 0 1 300 300 300 90000
23	5989 12 0 0 0 0 1 300 300 300 90000
24	6001 12 0 0 0 0 1 300 300 300 90000
25	6013 12 0 0 0 0 1 300 300 300 90000
26	6025 12 0 0 0 0 1 300 300 300 90000
27	6037 12 0 0 0 0 1 300 300 300 90000
28	6049 12 0 0 0 0 1 300 300 300 90000
29	6061 12 0 0 0 0 1 300 300 300 90000
30	6073 12 0 0 0 0 1 300 300 300 90000
31	6085 12 0 0 0 0 1 300 300 300 90000

